% Model:              PDE-Poisson.mph
% Version:            COMSOL 6.3.0.290
% Date:               Mar 29 2026, 00:51
% Dimension:          2
% Nodes:              4300
% Expressions:        1
% Description:        Surface
% X                       Y                        Dependent variable u
0.033912420142192666      0.03576534662396471      0.48313857037204766
0.022608280094795114      0.04138742406509928      0.3249094792406103
0.011304140047397557      0.04700950150623385      0.16386328911659437
0                         0.052631578947368425     0
0.022608280094795114      0.023843564415976477     0.3201847104923222
0.011304140047397557      0.029465641857111043     0.16150090474245038
0                         0.03508771929824561      3.1029580816861015E-19
0.011304140047397557      0.011921782207988238     0.1591385203683063
0                         0.017543859649122806     5.347291604993328E-17
0                         0                        0
0.04015213974391794       0.023843564415976477     0.5651746244775256
0.028847999696520382      0.011921782207988238     0.40507217077226443
0.017543859649122823      0                        0.24687738682271262
0.0463918593456432        0.011921782207988238     0.6479825125108291
0.03508771929824565       0                        0.4907314649800321
0.052631578947368474      0                        0.7315622344719581
0.038389844118863765      0.07978496783379437      0.5849976063766217
0.025593229412575847      0.08827769785410852      0.3994157277048871
0.012796614706287924      0.09677042787442268      0.20441652557934648
0                         0.10526315789473685      0
0.025593229412575847      0.07073383820498572      0.3844431587819094
0.012796614706287924      0.07922656822529987      0.19693024111785767
0                         0.08771929824561403      1.1057322922647363E-18
0.012796614706287924      0.06168270857617707      0.1894439566563688
0                         0.07017543859649122      6.46658121661109E-17
0.03540489480108304       0.05043855369390793      0.5127261630189903
0.0368973694599734        0.06511176076385115      0.5466791750205149
0.024100754753685477      0.0560606311350425       0.3524936093339688
0.07017543859649131       0                        0.9661305496923902
0.08771929824561411       0                        1.1920375039855065
0.10526315789473695       0                        1.409283097351307
0.06126794517982269       0.015470062112886929     0.8501356034755098
0.07881180482894551       0.015470062112886929     1.081727433619579
0.09635566447806833       0.015470062112886929     1.3046579028363325
0.0699043114122769        0.030940124225773857     0.9748109302519323
0.08744817106139971       0.030940124225773857     1.203426275319639
0.0785406776447311        0.046410186338660786     1.1055882148012257
0.048788505976372146      0.0393136265288634       0.6937931055352979
0.05502822557809742       0.027391844320875165     0.7715784375414911
0.06366459181055163       0.042861906433762094     0.9012763203450239
0.05028098063526251       0.05398683359880662      0.7280386674435909
0.065157066469442         0.05753511350370531      0.9401798515146673
0.05177345529415288       0.06866004066874984      0.766649648706466
0.04076861462644686       0.13071740751988897      0.7161519008198881
0.027179076417631245      0.13977651729396107      0.4966419920513785
0.013589538208815623      0.14883562706803316      0.2579246917780825
0                         0.15789473684210525      0
0.027179076417631245      0.12223265764483827      0.46668702785528593
0.013589538208815623      0.13129176741891035      0.24294720968003625
0                         0.14035087719298245      2.3037580441864725E-18
0.013589538208815623      0.11374790776978755      0.22796972758198986
0                         0.12280701754385964      7.912784538745545E-17
0.02638615291510354       0.1052551777494734       0.4293005662878743
0.03918276762139146       0.09676244772915923      0.6212140815399528
0.03997569112391916       0.1137399276245241       0.6649321796877081
0.1326746263479281        0.04199945406543748      1.762961332166581
0.1235374701968644        0.02799963604362499      1.6394767603249392
0.11440031404580067       0.013999818021812495     1.5215840153865146
0.14108132984598717       0.02799963604362499      1.833834249618722
0.13194417369492345       0.013999818021812495     1.7218731437156474
0.12280701754385973       0                        1.615503864715789
0.14948803334404623       0.013999818021812495     1.9094743815935271
0.1403508771929825        0                        1.8090367416290194
0.1578947368421053        0                        1.989881728090996
0.10549282062913205       0.029469880134699422     1.4278321322046428
0.11462997678019576       0.043469698156511916     1.5565981884761695
0.09658532721246343       0.04493994224758635      1.3374738160210515
0.0802069686599044        0.10427179686496074      1.262065013594275
0.06706085064875189       0.1130870004166035       1.0940333090150658
0.053914732637599376      0.12190220396824623      0.9120622714236035
0.0662679271462242        0.09610952052123863      1.0325408024090883
0.053121809135071675      0.10492472407288136      0.8557061575545248
0.05232888563254398       0.0879472441775165       0.8068516666698705
0.06571249680783309       0.07682231701247197      0.9797703431243313
0.0790961079831222        0.06569738984742743      1.1445671800571495
0.0796515383215133        0.08498459335619409      1.196726112988166
0.11730266601598816       0.08063075835725839      1.6811311183564368
0.10438200322556915       0.06922390101772585      1.4856014868921348
0.09146134043515013       0.05781704367819332      1.2937538523737309
0.12242665279330148       0.06775365692665142      1.7038757023441597
0.10950599000288246       0.056346799587118884     1.5188337607096565
0.1275506395706148        0.05487655549604445      1.7311524402808742
0.10493743356396024       0.08851110452649251      1.5504974398866644
0.09257220111193232       0.09639145069572662      1.4108087382992769
0.09201677077354123       0.07710424718695998      1.345691311498958
0.04208110647467191       0.18314071354617734      0.916422708766083
0.02805407098311461       0.19226924762727612      0.6454866343313609
0.014027035491557305      0.2013977817083749       0.3400123980759999
0                         0.21052631578947367      0
0.02805407098311461       0.17472538797815332      0.5924833763097204
0.014027035491557305      0.1838539220592521       0.3135107690651797
0                         0.19298245614035087      4.214231250655125E-18
0.014027035491557305      0.1663100624101293       0.2870091400543594
0                         0.17543859649122806      1.0134500604209021E-16
0.027616573700372925      0.15725095263605718      0.5388605479474108
0.04120611190918854       0.14819184286198508      0.7715045643356759
0.04164360919193023       0.1656662782040812       0.8382615003177408
0.18488811549404627       0.04207199043954755      2.2831793561120954
0.17589032261006596       0.028047993626365036     2.179421251266426
0.16689252972608562       0.014023996813182518     2.081655375259393
0.1934341822591888        0.028047993626365036     2.3314709309251658
0.18443638937520845       0.014023996813182518     2.2410348889400376
0.17543859649122812       0                        2.156591075793545
0.20198024902433126       0.014023996813182518     2.385653549095508
0.19298245614035092       0                        2.3085395699709217
0.21052631578947378       0                        2.4457272106231245
0.15848582622802657       0.028023814834995008     2.0138393497021836
0.16748361911200688       0.04204781164817752      2.1241965466494754
0.15007912272996748       0.042023632856807505     1.9507905386676374
0.08404651841543452       0.15611851660557932      1.5621966098260878
0.07005804776851365       0.16512591558577866      1.3723317807999118
0.05606957712159279       0.174133314565978        1.1570738137799106
0.06962055048577197       0.14765148024368255      1.2721357467280936
0.0556320798388511        0.1566588792238819       1.0678951925198301
0.055194582556109414      0.13918444388178575      0.9901208437260272
0.06834070056726192       0.13036924033014302      1.1748702634401016
0.08148681857841443       0.12155403677850027      1.3456803501419223
0.08276666849692448       0.1388362766920398       1.4457242155525267
0.16060550049533398       0.08401058503623152      2.1833500741154768
0.15129520911286537       0.0700068747126335       2.0354838942862794
0.14198491773039673       0.05600316438903549      1.895354313636647
0.16869970549490476       0.07003105350400353      2.2111895000624564
0.15938941411243612       0.05602734318040552      2.0771217197752643
0.17679391049447551       0.05605152197177554      2.2444659273946623
0.1317369441757701        0.08175736725024943      1.858695853266755
0.1368609309530834        0.06888026581964246      1.8747590064772055
0.14617122233555202       0.08288397614324047      2.0261021718531014
0.09973659509284677       0.14703469064343605      1.7563371556435805
0.09845674517433672       0.12975245072989655      1.63885899438974
0.09717689525582668       0.112470210816357        1.5378093619988564
0.115426671770259         0.1379508646812928       1.9289591920033216
0.11414682185174896       0.12066862476775325      1.8104752637692014
0.13111674844767124       0.12886703871914953      2.0800627189053102
0.12190736015988252       0.09670951847788878      1.797959460522029
0.13634163831966445       0.09783612737087981      1.9772007956941429
0.15077591647944638       0.09896273626387085      2.146283714542285
0.12651205430377688       0.11278827859851914      1.9309366607049867
0.1409463324635588        0.11391488749151019      2.111854596138896
0.1095421277078546        0.10458986464712289      1.6724119228192504
0.04205037269337963       0.2361062380749314       1.2128432569161838
0.02803358179558642       0.24512345696223495      0.8666564039390423
0.01401679089779321       0.2541406758495385       0.46237531830031436
0                         0.26315789473684204      0
0.02803358179558642       0.22757959731311217      0.7797053473692186
0.01401679089779321       0.2365968162004157       0.4188997900154027
0                         0.24561403508771923      7.271819930787696E-18
0.01401679089779321       0.21905295655129292      0.37542426173049065
0                         0.22807017543859645      1.347160310176511E-16
0.02804382638935051       0.20992442247019416      0.7046821281762096
0.04207086188090782       0.20079588838909534      0.9994018328012897
0.04206061728714372       0.21845106323201335      1.0982086821846564
0.042298361911070094      0.2889387978785896       1.6855877656706795
0.0281989079407134        0.29788902314712995      1.2185087819741143
0.0140994539703567        0.30683924841567023      0.6566461934172211
0                         0.3157894736842105       0
0.0281989079407134        0.2803451634980071       1.0849439165786952
0.0140994539703567        0.28929538876654737      0.5898637607195116
0                         0.29824561403508765      1.255545244318294E-17
0.0140994539703567        0.27175152911742456      0.5230813280218019
0                         0.28070175438596484      1.900057213073289E-16
0.028116244868149905      0.262734310230121        0.965047694731185
0.042133035765943114      0.25371709134281745      1.3489198287789819
0.04221569883850661       0.27132794461070353      1.5065013316971472
0.23716779932560553       0.04284862468940669      2.6701409913337866
0.22828730481356163       0.0285657497929378       2.589210750491365
0.2194068103015177        0.0142828748964689       2.5144061569211447
0.24583116446268444       0.0285657497929378       2.6957440665337273
0.23695066995064046       0.0142828748964689       2.6286601700845384
0.22807017543859653       0                        2.56770192090755
0.25449452959976326       0.0142828748964689       2.7278950109910305
0.24561403508771934       0                        2.674657458935074
0.26315789473684215       0                        2.7665938247056956
0.21086074353637518       0.02830687170965141      2.4680454291738028
0.2197412380484191        0.042589746606120304     2.5565629565242975
0.2023146767712327        0.04233086852283392      2.4275757447837343
0.08402490363325216       0.20891364435300627      1.9749333426349238
0.07003339331996132       0.21797784226031464      1.7624349320912742
0.05604188300667047       0.22704204016762303      1.508404903518361
0.07004363791372542       0.20032266741739663      1.609623475693801
0.05605212760043457       0.209386865324705        1.3746818879538607
0.05606237219419866       0.19173169048178698      1.2567865977375208
0.07005084284111954       0.18272429150158764      1.4799900596040394
0.08403931348804039       0.17371689252138828      1.677800383476732
0.08403210856064627       0.19131526843719726      1.8153792944130107
0.2115419081296587        0.0857475303737103       2.6382106830232126
0.20265731058445458       0.07118901706232272      2.512344028602169
0.19377271303925042       0.05663050375093513      2.3940002529651294
0.220083871861641         0.0714478951456091       2.641610816396352
0.21119927431643684       0.056889381834221514     2.530831841198041
0.22862583559362326       0.057148259917507896     2.6522542524998762
0.17758430304010892       0.08458956681539112      2.3510527224044635
0.18567850803967967       0.07061003528316312      2.3698079869921838
0.1945631055848838        0.08516854859455071      2.5026729253737083
0.12563046743589784       0.18199315491410673      2.4296430209636424
0.1117619461683493        0.19096665139373992      2.3043540175142114
0.09789342490080072       0.19994014787337308      2.1527841247379724
0.11176915109574341       0.17336827547793093      2.138348046807518
0.09790062982819484       0.1823417719575641       1.9900041152736692
0.09790783475558897       0.16474339604175514      1.8491992430949993
0.12745922777315566       0.1642844495157877       2.2924969091168217
0.11359791143300121       0.15565957007961184      2.023343947158398
0.12928798811041345       0.1465757441174686       2.1759701417640445
0.2030053868518105        0.10026019345426175      2.6434399152343273
0.19446886557396226       0.1147728565348132       2.6566253828666926
0.18593234429611405       0.12928551961536464      2.6777670859203107
0.18602658430703556       0.09968121167510216      2.498066795885232
0.17749006302918735       0.1141938747556536       2.501416901818006
0.16904778176226065       0.09910222989594256      2.3366112312163954
0.15921819774637308       0.11405438112358189      2.3177614833363287
0.16766047901329978       0.12914602598329294      2.5007837656310654
0.1493886137304855        0.12900653235122123      2.3015489766260653
0.1639833500619264        0.165688199626241        2.76049015427496
0.15119905585325022       0.17112318472219626      2.6656295830452166
0.13841476164457403       0.17655816981815148      2.555347205274778
0.15302781619050804       0.1534144793238772       2.526237871426079
0.14024352198183182       0.15884946441983244      2.4170782935417985
0.14207228231908964       0.14114075902151335      2.299428726302862
0.1712996814733223        0.15355397295594891      2.7275766783227717
0.1603441476019039        0.14128025265358507      2.5108412586115865
0.17861601288471818       0.14141974628565676      2.700002322204555
0.28962472948314943       0.04294429145505258      2.9197256489693264
0.28080245123438036       0.028629527636701724     2.86320592798314
0.2719801729856112        0.014314763818350862     2.812161986561929
0.29834631088350316       0.028629527636701724     2.925716865407745
0.28952403263473403       0.014314763818350862     2.882042275188973
0.28070175438596495       0                        2.843843464535177
0.3070678922838569        0.014314763818350862     2.9379766716015485
0.29824561403508776       0                        2.907147212150192
0.3157894736842106        0                        2.956505067550738
0.2633168078485324        0.028597638714819757     2.786903916135572
0.2721390860973014        0.04291240253317062      2.85138860084509
0.2546534427114535        0.042880513611288654     2.7681937149665767
0.042478505813988134      0.3415976800983446       2.3472982389269954
0.028319003875992094      0.3505388042760894       1.7045764348622408
0.014159501937996047      0.35947992845383414      0.9221436885532421
0                         0.3684210526315789       0
0.028319003875992094      0.3329949446269666       1.526921535497527
0.014159501937996047      0.3419360688047114       0.8333162388708856
0                         0.3508771929824561       2.0107076617705057E-17
0.014159501937996047      0.32439220915558853      0.7444887891885283
0                         0.3333333333333333       2.712311243304678E-16
0.028258955908352743      0.31544198388704825      1.3627929514488302
0.04235840987870944       0.3064917586185079       1.886313508848804
0.04241845784634878       0.32404471935842627      2.1068836666009094
0.04267210584647798       0.39452549484524185      3.1280573007331864
0.028448070564318657      0.40336787375647704      2.258042997415232
0.014224035282159328      0.41221025266771216      1.2153572305041696
0                         0.4210526315789474       0
0.028448070564318657      0.38582401410735423      2.0729625958013482
0.014224035282159328      0.39466639301858936      1.122817029697228
0                         0.40350877192982454      2.772232353388284E-17
0.014224035282159328      0.37712253336946655      1.030276828890286
0                         0.38596491228070173      3.719066923380552E-16
0.02838353722015537       0.3681814091917218       1.887176693942446
0.04254303915815141       0.359240285013977        2.604365616750363
0.0426075725023147        0.3768828899296094       2.864618637352426
0.08438665989045054       0.2619865133143803       2.6367629421241277
0.07035722723065706       0.2709706081691167       2.386443189673603
0.05632779457086358       0.27995470302385317      2.0693847975224537
0.07027456415809358       0.25335975490123064      2.1478653864993835
0.056245131498300086      0.2623438497559671       1.860552678948578
0.0561624684257366        0.244732996488081        1.673225491430069
0.07015397873902744       0.23566879858077264      1.9396571625977148
0.08414548905231828       0.22660460067346425      2.1645572157360964
0.0842660744713844        0.24429555699392225      2.3851670822324973
0.08485844278733917       0.3149710350609082       3.600668918716831
0.0707317971295555        0.32384658340672035      3.2856054289035703
0.056605151471771815      0.3327221317525325       2.867815202306959
0.07067174916191615       0.30629362266680205      2.954961760944945
0.05654510350413247       0.3151691710126141       2.582286082164603
0.05648505553649312       0.2976162102726958       2.316601376596228
0.0705144881962866        0.2886321154179593       2.653562701579366
0.08454392085608008       0.2796480205632229       2.92378538686188
0.08470118182170962       0.29730952781206554      3.2450873790594477
0.26355843152006253       0.08610532845722181      2.9474650079476974
0.2547615541219102        0.07168642720128345      2.8493706429871457
0.24596467672375788       0.057267525945345066     2.756929304115842
0.27224719750775817       0.0717183161231654       2.930317021937782
0.2634503201096058        0.057299414867227026     2.8464288554075554
0.2809359634954538        0.057331303789108994     2.921070568944992
0.2374227129917756        0.07156716117344626      2.753712866298935
0.2462195903899279        0.08598606242938464      2.8608245061872406
0.2288807492597933        0.08586679640154747      2.7577397312124123
0.12622031947978163       0.23485700845165902      3.0988564441058872
0.11227576628333794       0.24390017673923278      2.9856186465468113
0.09833121308689424       0.2529433450268065       2.831587479219558
0.11215518086427181       0.22620922041877478      2.7244756140125665
0.09821062766782811       0.23525238870634851      2.575218033006621
0.09809004224876199       0.2175614323858905       2.3498345801889124
0.11195856351631053       0.20858793590625735      2.4988036868505756
0.1258270847838591        0.19961443942662416      2.6214919041854294
0.12602370213182035       0.2172357239391416       2.844563045232844
0.23726995001596793       0.13013213272350724      3.0582502122465325
0.22869393605386484       0.11533726527357493      2.9107143885753706
0.2201179220917618        0.10054239782364262      2.770701212167597
0.24603277718399946       0.1154565313014121       3.0113028506026347
0.23745676322189638       0.10066166385147979      2.880759967275829
0.25479560435203097       0.10078092987931696      2.97437444916969
0.21158140081391355       0.11505506090419407      2.793354800370418
0.2201574147760166        0.12984992835412637      2.950792332769896
0.20304487953606531       0.1295677239847455       2.823964623994489
0.16738671163754085       0.20981375631650345      3.305086377807029
0.15366458091828777       0.218161507028222        3.2583595556901823
0.1399424501990347        0.22650925773994052      3.1896162444564684
0.15346796357032652       0.20054022251570458      3.0190021671559792
0.13974583285107345       0.20888797322742308      2.9427908507528455
0.13954921550311217       0.19126668871490565      2.727187714874851
0.16511780392046457       0.18039671852299516      2.9220532870793865
0.1662522577790027        0.1951052374197493       3.103585361590076
0.15233350971178838       0.1858317036189504       2.8323314042474665
0.19390301239795413       0.14567873110716284      2.872512170340923
0.21101554763790542       0.1459609354765437       3.0086132835754653
0.22812808287785669       0.14624313984592457      3.1253445675112363
0.2018736804997942        0.16207194259896104      3.0816921171229437
0.21898621573974547       0.1623541469683419       3.20769680551785
0.20984434860163426       0.17846515409075925      3.3053069262663723
0.17927034957516236       0.1699471844477471       2.9603680011662665
0.18658668098655823       0.15781295777745497      2.913770525836609
0.1945573490883983        0.17420616926925317      3.1419735918300704
0.1804048034337005        0.18465570334450124      3.1269096421250784
0.19569180294693644       0.18891468816600732      3.313493740943268
0.18153925729223863       0.19936422224125538      3.3134202247901534
0.34215871604005943       0.04287826892099628      3.0426179736523475
0.3333689685881098        0.028585512613997527     3.0093573384396146
0.3245792211361602        0.014292756306998763     2.980653036405745
0.35091282823723263       0.028585512613997527     3.032518825416877
0.34212308078528303       0.014292756306998763     3.010350566581428
0.33333333333333337       0                        2.9927386409248413
0.35966694043440584       0.014292756306998763     3.0279343679339625
0.3508771929824562        0                        3.016858485475797
0.368421052631579         0                        3.0288646012036033
0.3158576397358065        0.02860752012534962      2.9741331456487337
0.3246473871877561        0.04290027643234838      3.014845952874781
0.30713605833545277       0.042922283943700484     2.9738818446471074
0.31596805891501545       0.08587734521690332      3.1150631855701856
0.3071869491043935        0.07156632729628642      3.0460249219202007
0.2984058392937714        0.0572553093756695       2.980912409719915
0.3246982779566968        0.07154431978493432      3.083432286533171
0.31591716814607473       0.057233301864317396     3.0266941898652906
0.33342849699837807       0.0572112943529653       3.0592838825605586
0.28971707330607577       0.0716423217097259       2.9955463908746527
0.2984981831166978        0.08595333963034281      3.073947964254011
0.28102830731838013       0.08602933404378231      3.018081905046515
0.394740383151019         0.04281465666435719      3.0562964139129405
0.38596727297787237       0.028543104442904796     3.0435226111452076
0.3771941628047257        0.014271552221452398     3.034378673575429
0.40351113262699523       0.028543104442904796     3.0334746286239005
0.3947380224538485        0.014271552221452398     3.0298198100746294
0.3859649122807018        0                        3.0297948567233113
0.41228188210297134       0.014271552221452398     3.015249306336268
0.4035087719298246        0                        3.0207134720054585
0.42105263157894746       0                        3.001620447050044
0.36844005060755247       0.028564308528451154     3.0435533274292155
0.3772131607806991        0.042835860749903545     3.062802152122422
0.35968593841037927       0.04285706483544992      3.0582426720355578
0.04268661989832718       0.447257535236369        3.782514454608932
0.028457746598884788      0.45606642699968464      2.6895952994253163
0.014228873299442394      0.4648753187630002       1.4287571478890055
0                         0.47368421052631576      0
0.028457746598884788      0.43852256735056183      2.5672444089009456
0.014228873299442394      0.4473314591138774       1.3675817026268207
0                         0.45614035087719296      3.175843742434354E-17
0.014228873299442394      0.4297875994647546       1.306406257364635
0                         0.43859649122807015      4.630848223355851E-16
0.028452908581601717      0.42094522055351935      2.426954358342849
0.042676943863761044      0.41210284164228417      3.3748309957279563
0.042681781881044115      0.4296801884393266       3.5929833803532047
0.04267634946845959       0.4999499722994608       4.042738782330496
0.02845089964563973       0.508738578024202        2.812762825863265
0.014225449822819865      0.517527183748943        1.4651832317530995
0                         0.5263157894736842       0
0.02845089964563973       0.49119471837507916      2.812696698834257
0.014225449822819865      0.49998332409982027      1.465150168238596
0                         0.5087719298245614       2.937190373418161E-17
0.014225449822819865      0.48243946445069746      1.4651171047240914
0                         0.49122807017543857      5.075669629746787E-16
0.028454323122262256      0.47363057268738185      2.778737487131765
0.04268319642170465       0.4648216809240663       3.9244388731867437
0.04267977294508212       0.48238582661176355      4.011180315760598
0.08518037764261448       0.3679047974506293       4.813654268455658
0.07101095371056898       0.3767783632488335       4.394479167281131
0.056841529778523484      0.38565192904703766      3.83261351137364
0.07094642036640571       0.3591357583332011       4.008659371371103
0.0567769964343602        0.36800932413140525      3.507984281728247
0.05671246309019692       0.3503667192157729       3.186540694861549
0.07083910874798059       0.3414911708699607       3.6375688868376788
0.08496575440576426       0.33261562252414856      3.985870342030456
0.08507306602418938       0.35026020998738894      4.390198791943399
0.08532043725458359       0.4207338702920711       6.01830696656141
0.07110916480249813       0.4295750919401704       5.442153433872656
0.05689789235041265       0.4384163135882697       4.69688926322183
0.07110432678521506       0.41199774514312804      5.1188097464920315
0.056893054333129585      0.42083896679122734      4.4404518824036545
0.05688821631584652       0.4032616199941849       4.155393191215957
0.07105764024789202       0.3943880541959808       4.767330757179039
0.0852270641799375        0.3855144883977766       5.236577768409159
0.08527375071726054       0.40312417934492384      5.6381286677777425
0.12708889806433082       0.2880829954252807       4.095885987071957
0.11301207963866694       0.2970456753038232       3.99490375201375
0.09893526121300306       0.3060083551823657       3.8298313958953742
0.1128548186730374        0.27938416805498056      3.6199098958540423
0.09877800024737352       0.28834684793352305      3.4645436979868296
0.09862073928174397       0.2706853406846804       3.1335355475380995
0.11256529247818767       0.26164217239710663      3.2835719224059785
0.12650984567463136       0.2525990041095329       3.392814927505681
0.1267993718694811        0.2703409997674068       3.725158108494371
0.1276762620158886        0.34125414176748414      5.413342215639066
0.11351096722479723       0.35013769366186587      5.310506145800229
0.09934567243370584       0.3590212455562476       5.1106101634057595
0.11340365560637214       0.3324931061986255       4.842946987009075
0.09923836081528076       0.3413766580930072       4.665102845754054
0.09913104919685564       0.32373207062976683      4.238722554701663
0.11320786762251954       0.31476939075122434      4.403227741746338
0.1272846860481834        0.30580671087268185      4.503642807730843
0.127480474032036         0.323530426320083        4.9427948839198805
0.28981214163315494       0.1291121258567223       3.2660069350596648
0.2810609049287908        0.11477652672355547      3.1560941752953737
0.27230966822442665       0.10044092759038864      3.049913532924718
0.2985307807271085        0.11470053231011598      3.205878274704097
0.2897795440227443        0.10036493317694914      3.1101140311784885
0.30724941982106196       0.10028893876350964      3.155563691540937