% Model:              PDE-Poisson.mph
% Version:            COMSOL 6.3.0.290
% Date:               Mar 29 2026, 00:51
% Dimension:          2
% Nodes:              4300
% Expressions:        1
% Description:        Surface
% X                       Y                        rho0*exp(-((x-0.1)^2 + (y-0.5)^2)/(2*Sigma^2))
0.033912420142192666      0.03576534662396471      0.016801051565465144
0.022608280094795114      0.04138742406509928      0.020080755170073215
0.011304140047397557      0.04700950150623385      0.023621166438181723
0                         0.052631578947368425     0.027346412498957345
0.022608280094795114      0.023843564415976477     0.008844440637369671
0.011304140047397557      0.029465641857111043     0.010506915607842027
0                         0.03508771929824561      0.012284510017949467
0.011304140047397557      0.011921782207988238     0.004531918887037958
0                         0.017543859649122806     0.0053511644415490485
0                         0                        0.0022603294069810584
0.04015213974391794       0.023843564415976477     0.009975924914131329
0.028847999696520382      0.011921782207988238     0.005214081083243734
0.017543859649122823      0                        0.002652651760179447
0.0463918593456432        0.011921782207988238     0.005817098434149201
0.03508771929824565       0                        0.0030187122968037385
0.052631578947368474      0                        0.003331165331964906
0.038389844118863765      0.07978496783379437      0.12110843843276416
0.025593229412575847      0.08827769785410852      0.15805285118837462
0.012796614706287924      0.09677042787442268      0.2014587500023472
0                         0.10526315789473685      0.25079900268167193
0.025593229412575847      0.07073383820498572      0.07558216172996263
0.012796614706287924      0.07922656822529987      0.09778537180006318
0                         0.08771929824561403      0.12356183339187106
0.012796614706287924      0.06168270857617707      0.04602508802083143
0                         0.07017543859649122      0.05903041849028502
0.03540489480108304       0.05043855369390793      0.033168793429398054
0.0368973694599734        0.06511176076385115      0.06407308773352839
0.024100754753685477      0.0560606311350425       0.0393843143899238
0.07017543859649131       0                        0.0035645411461276786
0.08771929824561411       0                        0.0036986569829813554
0.10526315789473695       0                        0.0037214951754326667
0.06126794517982269       0.015470062112886929     0.007404137155031188
0.07881180482894551       0.015470062112886929     0.007803719989922681
0.09635566447806833       0.015470062112886929     0.007975572743428522
0.0699043114122769        0.030940124225773857     0.015948498411495836
0.08744817106139971       0.030940124225773857     0.016556433947154958
0.0785406776447311        0.046410186338660786     0.03329141244854746
0.048788505976372146      0.0393136265288634       0.02160193657364028
0.05502822557809742       0.027391844320875165     0.012761899015512893
0.06366459181055163       0.042861906433762094     0.027132591239773133
0.05028098063526251       0.05398683359880662      0.042331194947936655
0.065157066469442         0.05753511350370531      0.0527756688888486
0.05177345529415288       0.06866004066874984      0.08116730769124805
0.04076861462644686       0.13071740751988897      0.9174618987873214
0.027179076417631245      0.13977651729396107      1.167147874645561
0.013589538208815623      0.14883562706803316      1.4457034833699411
0                         0.15789473684210525      1.7436048534628001
0.027179076417631245      0.12223265764483827      0.6109150803961894
0.013589538208815623      0.13129176741891035      0.7688409522270075
0                         0.14035087719298245      0.9421231336595542
0.013589538208815623      0.11374790776978755      0.3964850062118524
0                         0.12280701754385964      0.493628523334834
0.02638615291510354       0.1052551777494734       0.3152565964568982
0.03918276762139146       0.09676244772915923      0.24482596034723347
0.03997569112391916       0.1137399276245241       0.4808341939643096
0.1326746263479281        0.04199945406543748      0.02641425941781572
0.1235374701968644        0.02799963604362499      0.01413413444020399
0.11440031404580067       0.013999818021812495     0.007354653643100558
0.14108132984598717       0.02799963604362499      0.013355250402709079
0.13194417369492345       0.013999818021812495     0.007061660358904389
0.12280701754385973       0                        0.003630979895462034
0.14948803334404623       0.013999818021812495     0.0065748281550593955
0.1403508771929825        0                        0.0034352884414264842
0.1578947368421053        0                        0.003151632366701254
0.10549282062913205       0.029469880134699422     0.015550181631174028
0.11462997678019576       0.043469698156511916     0.029482973342020925
0.09658532721246343       0.04493994224758635      0.031847049818663084
0.0802069686599044        0.10427179686496074      0.3898966935333051
0.06706085064875189       0.1130870004166035       0.531752267149496
0.053914732637599376      0.12190220396824623      0.7072758760533401
0.0662679271462242        0.09610952052123863      0.2710333701366223
0.053121809135071675      0.10492472407288136      0.36555203533033526
0.05232888563254398       0.0879472441775165       0.1835542238506341
0.06571249680783309       0.07682231701247197      0.12184641342250056
0.0790961079831222        0.06569738984742743      0.0784706024545887
0.0796515383215133        0.08498459335619409      0.17820207795016396
0.11730266601598816       0.08063075835725839      0.14945769909575998
0.10438200322556915       0.06922390101772585      0.0933306055320323
0.09146134043515013       0.05781704367819332      0.05657554244436884
0.12242665279330148       0.06775365692665142      0.08550011877940555
0.10950599000288246       0.056346799587118884     0.052962507302748
0.1275506395706148        0.05487655549604445      0.04798145723047822
0.10493743356396024       0.08851110452649251      0.2102161086869753
0.09257220111193232       0.09639145069572662      0.28938526423593197
0.09201677077354123       0.07710424718695998      0.13035781247136455
0.04208110647467191       0.18314071354617734      5.5847239095556445
0.02805407098311461       0.19226924762727612      6.780383380044068
0.014027035491557305      0.2013977817083749       8.004657095406468
0                         0.21052631578947367      9.188976751332083
0.02805407098311461       0.17472538797815332      3.8913875184468187
0.014027035491557305      0.1838539220592521       4.668186272663733
0                         0.19298245614035087      5.4453752317806785
0.014027035491557305      0.1663100624101293       2.639894687402274
0                         0.17543859649122806      3.129114466909485
0.027616573700372925      0.15725095263605718      2.1639641307198882
0.04120611190918854       0.14819184286198508      1.727145841867116
0.04164360919193023       0.1656662782040812       3.1535537296577005
0.18488811549404627       0.04207199043954755      0.01949792117268521
0.17589032261006596       0.028047993626365036     0.0109201388852602
0.16689252972608562       0.014023996813182518     0.00594854259557876
0.1934341822591888        0.028047993626365036     0.009412874889561424
0.18443638937520845       0.014023996813182518     0.005209071275200504
0.17543859649122812       0                        0.0028037602591746346
0.20198024902433126       0.014023996813182518     0.004423265458084354
0.19298245614035092       0                        0.0024186842657352705
0.21052631578947378       0                        0.0020232542578751843
0.15848582622802657       0.028023814834995008     0.012260773211480584
0.16748361911200688       0.04204781164817752      0.022237905209600492
0.15007912272996748       0.042023632856807505     0.02460616418586249
0.08404651841543452       0.15611851660557932      2.6706072183840974
0.07005804776851365       0.16512591558577866      3.5109850291667493
0.05606957712159279       0.174133314565978        4.489791851686374
0.06962055048577197       0.14765148024368255      1.9234794559932076
0.0556320798388511        0.1566588792238819       2.4972082333202668
0.055194582556109414      0.13918444388178575      1.347142564720219
0.06834070056726192       0.13036924033014302      1.0266435504287856
0.08148681857841443       0.12155403677850027      0.7630368373312738
0.08276666849692448       0.1388362766920398       1.4491021265474218
0.16060550049533398       0.08401058503623152      0.1454015979919223
0.15129520911286537       0.0700068747126335       0.08471106615866626
0.14198491773039673       0.05600316438903549      0.047976647902463705
0.16869970549490476       0.07003105350400353      0.07639088124874144
0.15938941411243612       0.05602734318040552      0.043972719592025596
0.17679391049447551       0.05605152197177554      0.03910040270636302
0.1317369441757701        0.08175736725024943      0.15123030661137624
0.1368609309530834        0.06888026581964246      0.08600134076655577
0.14617122233555202       0.08288397614324047      0.14984967148420772
0.09973659509284677       0.14703469064343605      1.970971028967908
0.09845674517433672       0.12975245072989655      1.0549293629992604
0.09717689525582668       0.112470210816357        0.5479287097062924
0.115426671770259         0.1379508646812928       1.4075876457887346
0.11414682185174896       0.12066862476775325      0.7431436157481965
0.13111674844767124       0.12886703871914953      0.972737448636331
0.12190736015988252       0.09670951847788878      0.2869630070594635
0.13634163831966445       0.09783612737087981      0.28792090349526267
0.15077591647944638       0.09896273626387085      0.28288954695107127
0.12651205430377688       0.11278827859851914      0.535778188105573
0.1409463324635588        0.11391488749151019      0.5330390818737807
0.1095421277078546        0.10458986464712289      0.4008146860399465
0.04205037269337963       0.2361062380749314       25.993628091573957
0.02803358179558642       0.24512345696223495      29.984914403710313
0.01401679089779321       0.2541406758495385       33.64146229246242
0                         0.26315789473684204      36.70988767488282
0.02803358179558642       0.22757959731311217      18.88094517159674
0.01401679089779321       0.2365968162004157       21.52118512880959
0                         0.24561403508771923      23.858590037222207
0.01401679089779321       0.21905295655129292      13.350283298439116
0                         0.22807017543859645      15.036247779991148
0.02804382638935051       0.20992442247019416      11.49231669938601
0.04207086188090782       0.20079588838909534      9.619680062397762
0.04206061728714372       0.21845106323201335      16.061361580301423
0.042298361911070094      0.2889387978785896       91.28073658458446
0.0281989079407134        0.29788902314712995      100.23757212918815
0.0140994539703567        0.30683924841567023      107.04574762017148
0                         0.3157894736842105       111.17209195666688
0.0281989079407134        0.2803451634980071       69.23960863536658
0.0140994539703567        0.28929538876654737      75.11260809902288
0                         0.29824561403508765      79.24257093182918
0.0140994539703567        0.27175152911742456      51.108042155522206
0                         0.28070175438596484      54.77145984352543
0.028116244868149905      0.262734310230121        46.27682006999504
0.042133035765943114      0.25371709134281745      40.754344466001136
0.04221569883850661       0.27132794461070353      61.94572262857134
0.23716779932560553       0.04284862468940669      0.01130665286913684
0.22828730481356163       0.0285657497929378       0.006554267182247919
0.2194068103015177        0.0142828748964689       0.0036934277621864095
0.24583116446268444       0.0285657497929378       0.005153424876059377
0.23695066995064046       0.0142828748964689       0.0029496307028059085
0.22807017543859653       0                        0.0016411743720985042
0.25449452959976326       0.0142828748964689       0.002284223846202448
0.24561403508771934       0                        0.001290898125236809
0.26315789473684215       0                        9.846053551302875E-4
0.21086074353637518       0.02830687170965141      0.007974787250610344
0.2197412380484191        0.042589746606120304     0.01397689148998783
0.2023146767712327        0.04233086852283392      0.01676082316108407
0.08402490363325216       0.20891364435300627      14.273886822538072
0.07003339331996132       0.21797784226031464      17.922027275815513
0.05604188300667047       0.22704204016762303      21.885779427727645
0.07004363791372542       0.20032266741739663      10.724822497406192
0.05605212760043457       0.209386865324705        13.308258764777174
0.05606237219419866       0.19173169048178698      7.844102609032415
0.07005084284111954       0.18272429150158764      6.232103511443417
0.08403931348804039       0.17371689252138828      4.816197864531449
0.08403210856064627       0.19131526843719726      8.420703923546963
0.2115419081296587        0.0857475303737103       0.10080372052536901
0.20265731058445458       0.07118901706232272      0.06001781487552499
0.19377271303925042       0.05663050375093513      0.034709692205095205
0.220083871861641         0.0714478951456091       0.049981773808524935
0.21119927431643684       0.056889381834221514     0.029367705874542398
0.22862583559362326       0.057148259917507896     0.0241044650266593
0.17758430304010892       0.08458956681539112      0.13245632310253647
0.18567850803967967       0.07061003528316312      0.06869546126214762
0.1945631055848838        0.08516854859455071      0.11723082532907553
0.12563046743589784       0.18199315491410673      6.162555589020541
0.1117619461683493        0.19096665139373992      8.379243052572436
0.09789342490080072       0.19994014787337308      11.086605335843963
0.11176915109574341       0.17336827547793093      4.789449413819909
0.09790062982819484       0.1823417719575641       6.437867933488286
0.09790783475558897       0.16474339604175514      3.6243932548713906
0.12745922777315566       0.1642844495157877       3.4377193698541983
0.11359791143300121       0.15565957007961184      2.6379274059616473
0.12928798811041345       0.1465757441174686       1.8578701190183506
0.2030053868518105        0.10026019345426175      0.19941925649938458
0.19446886557396226       0.1147728565348132       0.3834827451500751
0.18593234429611405       0.12928551961536464      0.7168243774562534
0.18602658430703556       0.09968121167510216      0.2287718647722858
0.17749006302918735       0.1141938747556536       0.4339619036972294
0.16904778176226065       0.09910222989594256      0.2549786065940942
0.15921819774637308       0.11405438112358189      0.4890524650706978
0.16766047901329978       0.12914602598329294      0.8205542567158797
0.1493886137304855        0.12900653235122123      0.9084511784435555
0.1639833500619264        0.165688199626241        3.0490889200808047
0.15119905585325022       0.17112318472219626      3.9301992785484376
0.13841476164457403       0.17655816981815148      4.969104823066456
0.15302781619050804       0.1534144793238772       2.140590354050714
0.14024352198183182       0.15884946441983244      2.739002572728375
0.14207228231908964       0.14114075902151335      1.4626556037964467
0.1712996814733223        0.15355397295594891      1.9200103321280584
0.1603441476019039        0.14128025265358507      1.3386901215932643
0.17861601288471818       0.14141974628565676      1.1849984744419324
0.28962472948314943       0.04294429145505258      0.004819343043336901
0.28080245123438036       0.028629527636701724     0.0029198379803121502
0.2719801729856112        0.014314763818350862     0.0017196901525221315
0.29834631088350316       0.028629527636701724     0.0020937181302653008
0.28952403263473403       0.014314763818350862     0.0012523667716968303
0.28070175438596495       0                        7.282246858863436E-4
0.3070678922838569        0.014314763818350862     8.843941231620303E-4
0.29824561403508776       0                        5.222778169781611E-4
0.3157894736842106        0                        3.6322082741996347E-4
0.2633168078485324        0.028597638714819757     0.003938824231646433
0.2721390860973014        0.04291240253317062      0.0066026013937501606
0.2546534427114535        0.042880513611288654     0.008773316938059732
0.042478505813988134      0.3415976800983446       241.71380849592057
0.028319003875992094      0.3505388042760894       253.13287977575823
0.014159501937996047      0.35947992845383414      257.7605873866961
0                         0.3684210526315789       255.2144850481798
0.028319003875992094      0.3329949446269666       191.7730406185189
0.014159501937996047      0.3419360688047114       198.3663168230286
0                         0.3508771929824561       199.51206293520426
0.014159501937996047      0.32439220915558853      148.03088187911916
0                         0.3333333333333333       151.23975969049576
0.028258955908352743      0.31544198388704825      140.79900022678945
0.04235840987870944       0.3064917586185079       130.23697286874506
0.04241845784634878       0.32404471935842627      180.1807547100978
0.04267210584647798       0.39452549484524185      486.4758911510136
0.028448070564318657      0.40336787375647704      485.3561530190998
0.014224035282159328      0.41221025266771216      470.84430935489877
0                         0.4210526315789474       444.1316066796414
0.028448070564318657      0.38582401410735423      403.41409320093885
0.014224035282159328      0.39466639301858936      397.4706261288112
0                         0.40350877192982454      380.7821490248409
0.014224035282159328      0.37712253336946655      325.36117811197255
0                         0.38596491228070173      316.57342887005206
0.02838353722015537       0.3681814091917218       324.5703630076285
0.04254303915815141       0.359240285013977        314.82763335963176
0.0426075725023147        0.3768828899296094       397.48993088794924
0.08438665989045054       0.2619865133143803       58.15113907291536
0.07035722723065706       0.2709706081691167       69.48406627029252
0.05632779457086358       0.27995470302385317      80.75303661732897
0.07027456415809358       0.25335975490123064      45.6957217280365
0.056245131498300086      0.2623438497559671       53.94734971509177
0.0561624684257366        0.244732996488081        34.9391042006268
0.07015397873902744       0.23566879858077264      29.068840507139853
0.08414548905231828       0.22660460067346425      23.52196779929757
0.0842660744713844        0.24429555699392225      37.56750130678433
0.08485844278733917       0.3149710350609082       178.4852648441131
0.0707317971295555        0.32384658340672035      203.0439758014097
0.056605151471771815      0.3327221317525325       224.64140488822628
0.07067174916191615       0.30629362266680205      146.73671597465975
0.05654510350413247       0.3151691710126141       164.87986376274458
0.05648505553649312       0.2976162102726958       117.34494465712993
0.0705144881962866        0.2886321154179593       102.56188546591903
0.08454392085608008       0.2796480205632229       87.18750398935178
0.08470118182170962       0.29730952781206554      126.7074912302305
0.26355843152006253       0.08610532845722181      0.05002398424538972
0.2547615541219102        0.07168642720128345      0.031353559273289415
0.24596467672375788       0.057267525945345066     0.01909877193298168
0.27224719750775817       0.0717183161231654       0.023589357767737386
0.2634503201096058        0.057299414867227026     0.01459267655319897
0.2809359634954538        0.057331303789108994     0.010813990185764677
0.2374227129917756        0.07156716117344626      0.04018627769232483
0.2462195903899279        0.08598606242938464      0.06511305730462091
0.2288807492597933        0.08586679640154747      0.08224336069386473
0.12622031947978163       0.23485700845165902      28.741432503113547
0.11227576628333794       0.24390017673923278      37.36986322166972
0.09833121308689424       0.2529433450268065       47.26483146699575
0.11215518086427181       0.22620922041877478      23.389759741706712
0.09821062766782811       0.23525238870634851      30.055038035802813
0.09809004224876199       0.2175614323858905       18.522675018954956
0.11195856351631053       0.20858793590625735      14.218662495144928
0.1258270847838591        0.19961443942662416      10.620956880654767
0.12602370213182035       0.2172357239391416       17.745142820148306
0.23726995001596793       0.13013213272350724      0.41706689846777895
0.22869393605386484       0.11533726527357493      0.267503626900813
0.2201179220917618        0.10054239782364262      0.16663003586000688
0.24603277718399946       0.1154565313014121       0.21177999818320137
0.23745676322189638       0.10066166385147979      0.13391926713252714
0.25479560435203097       0.10078092987931696      0.10444214734990429
0.21158140081391355       0.11505506090419407      0.3250112512011023
0.2201574147760166        0.12984992835412637      0.5144336386344541
0.20304487953606531       0.1295677239847455       0.6162142073815986
0.16738671163754085       0.20981375631650345      11.826041806882715
0.15366458091828777       0.218161507028222        16.31547608924993
0.1399424501990347        0.22650925773994052      21.935931662208834
0.15346796357032652       0.20054022251570458      9.786522715046981
0.13974583285107345       0.20888797322742308      13.34922206613827
0.13954921550311217       0.19126668871490565      7.875332308952487
0.16511780392046457       0.18039671852299516      4.896036415885407
0.1662522577790027        0.1951052374197493       7.692504271522845
0.15233350971178838       0.1858317036189504       6.269706507235452
0.19390301239795413       0.14567873110716284      1.208872869438413
0.21101554763790542       0.1459609354765437       1.024648603217441
0.22812808287785669       0.14624313984592457      0.8434279425161959
0.2018736804997942        0.16207194259896104      1.9720514401548244
0.21898621573974547       0.1623541469683419       1.6481166285016122
0.20984434860163426       0.17846515409075925      3.1118997018132615
0.17927034957516236       0.1699471844477471       3.148174654751835
0.18658668098655823       0.15781295777745497      1.9705132060694832
0.1945573490883983        0.17420616926925317      3.169645203819968
0.1804048034337005        0.18465570334450124      5.014869436927239
0.19569180294693644       0.18891468816600732      5.008846552147709
0.18153925729223863       0.19936422224125538      7.816440028353747
0.34215871604005943       0.04287826892099628      0.001545665433659963
0.3333689685881098        0.028585512613997527     9.810575437305905E-4
0.3245792211361602        0.014292756306998763     6.054053174089274E-4
0.35091282823723263       0.028585512613997527     6.415085565893448E-4
0.34212308078528303       0.014292756306998763     4.0202335972762415E-4
0.33333333333333337       0                        2.449474296648572E-4
0.35966694043440584       0.014292756306998763     2.588745316204176E-4
0.3508771929824562        0                        1.6017989686222157E-4
0.368421052631579         0                        1.0157249318841324E-4
0.3158576397358065        0.02860752012534962      0.0014553421421584249
0.3246473871877561        0.04290027643234838      0.0023283975057106976
0.30713605833545277       0.042922283943700484     0.0034015843183173417
0.31596805891501545       0.08587734521690332      0.01832968311932068
0.3071869491043935        0.07156632729628642      0.012078395594791978
0.2984058392937714        0.0572553093756695       0.0077378482948319335
0.3246982779566968        0.07154431978493432      0.008267492483419639
0.31591716814607473       0.057233301864317396     0.0053783516047390114
0.33342849699837807       0.0572112943529653       0.0036254394371079135
0.28971707330607577       0.0716423217097259       0.017139181106216077
0.2984981831166978        0.08595333963034281      0.02640893169644701
0.28102830731838013       0.08602933404378231      0.03690557198036322
0.394740383151019         0.04281465666435719      3.756843348837434E-4
0.38596727297787237       0.028543104442904796     2.498402110736289E-4
0.3771941628047257        0.014271552221452398     1.6155237495712581E-4
0.40351113262699523       0.028543104442904796     1.4896855406131639E-4
0.3947380224538485        0.014271552221452398     9.782053202164185E-5
0.3859649122807018        0                        6.245643565353872E-5
0.41228188210297134       0.014271552221452398     5.743540318319618E-5
0.4035087719298246        0                        3.724013602381837E-5
0.42105263157894746       0                        2.153169907214844E-5
0.36844005060755247       0.028564308528451154     4.065399648926133E-4
0.3772131607806991        0.042835860749903545     6.207674285723621E-4
0.35968593841037927       0.04285706483544992      9.947021523750495E-4
0.04268661989832718       0.447257535236369        738.3557264147048
0.028457746598884788      0.45606642699968464      702.9829484196828
0.014228873299442394      0.4648753187630002       650.8204570891123
0                         0.47368421052631576      585.8883487035214
0.028457746598884788      0.43852256735056183      640.8957720787939
0.014228873299442394      0.4473314591138774       602.5810687495025
0                         0.45614035087719296      550.9102101692881
0.014228873299442394      0.4297875994647546       541.0068339094015
0                         0.43859649122807015      502.3191800642656
0.028452908581601717      0.42094522055351935      566.4127523078766
0.042676943863761044      0.41210284164228417      576.608264564962
0.042681781881044115      0.4296801884393266       662.6471044527232
0.04267634946845959       0.4999499722994608       848.487292667446
0.02845089964563973       0.508738578024202        771.2198280503071
0.014225449822819865      0.517527183748943        681.6603393024357
0                         0.5263157894736842       585.8883487035215
0.02845089964563973       0.49119471837507916      771.1747038095286
0.014225449822819865      0.49998332409982027      692.2115328207061
0                         0.5087719298245614       604.2016146585121
0.014225449822819865      0.48243946445069746      681.6204552069275
0                         0.49122807017543857      604.2016146585121
0.028454323122262256      0.47363057268738185      747.7350845085463
0.04268319642170465       0.4648216809240663       797.6092163710609
0.04267977294508212       0.48238582661176355      835.4428155394129
0.08518037764261448       0.3679047974506293       413.35925919111975
0.07101095371056898       0.3767783632488335       448.79151612354525
0.056841529778523484      0.38565192904703766      473.82996554318726
0.07094642036640571       0.3591357583332011       355.4601066934305
0.0567769964343602        0.36800932413140525      381.1781881800837
0.05671246309019692       0.3503667192157729       297.2456200275996
0.07083910874798059       0.3414911708699607       272.867124824521
0.08496575440576426       0.33261562252414856      243.6121376646034
0.08507306602418938       0.35026020998738894      322.31018052640843
0.08532043725458359       0.4207338702920711       722.5776114566162
0.07110916480249813       0.4295750919401704       748.4750554856649
0.05689789235041265       0.4384163135882697       753.8837460684002
0.07110432678521506       0.41199774514312804      651.1808711327017
0.056893054333129585      0.42083896679122734      666.1543375869422
0.05688821631584652       0.4032616199941849       570.7254529375418
0.07105764024789202       0.3943880541959808       549.043742354595
0.0852270641799375        0.3855144883977766       513.6266702086125
0.08527375071726054       0.40312417934492384      618.7281045714218
0.12708889806433082       0.2880829954252807       102.06644447936982
0.11301207963866694       0.2970456753038232       126.43984639629416
0.09893526121300306       0.3060083551823657       152.3317460845193
0.1128548186730374        0.27938416805498056      87.0015292065292
0.09877800024737352       0.28834684793352305      106.4662225648688
0.09862073928174397       0.2706853406846804       72.12491253423669
0.11256529247818767       0.26164217239710663      57.92437330887888
0.12650984567463136       0.2525990041095329       45.25232475909098
0.1267993718694811        0.2703409997674068       69.03973048116026
0.1276762620158886        0.34125414176748414      272.99244743380314
0.11351096722479723       0.35013769366186587      322.3675725539311
0.09934567243370584       0.3590212455562476       370.177792882282
0.11340365560637214       0.3324931061986255       243.6772018642912
0.09923836081528076       0.3413766580930072       284.194267379932
0.09913104919685564       0.32373207062976683      211.4943700501368
0.11320786762251954       0.31476939075122434      178.3082796637637
0.1272846860481834        0.30580671087268185      146.2007821610912
0.127480474032036         0.323530426320083        202.94214422287672